+ 0.1 2 3 cbr 210 ------- 0 2.0 9.0 0 0
- 0.1 2 3 cbr 210 ------- 0 2.0 9.0 0 0
+ 0.10375 2 3 cbr 210 ------- 0 2.0 9.0 1 1
- 0.10375 2 3 cbr 210 ------- 0 2.0 9.0 1 1
+ 0.1075 2 3 cbr 210 ------- 0 2.0 9.0 2 2
- 0.1075 2 3 cbr 210 ------- 0 2.0 9.0 2 2
r 0.11084 2 3 cbr 210 ------- 0 2.0 9.0 0 0
+ 0.11084 3 4 cbr 210 ------- 0 2.0 9.0 0 0
- 0.11084 3 4 cbr 210 ------- 0 2.0 9.0 0 0
+ 0.11125 2 3 cbr 210 ------- 0 2.0 9.0 3 3
- 0.11125 2 3 cbr 210 ------- 0 2.0 9.0 3 3
r 0.11459 2 3 cbr 210 ------- 0 2.0 9.0 1 1
+ 0.11459 3 4 cbr 210 ------- 0 2.0 9.0 1 1
- 0.11459 3 4 cbr 210 ------- 0 2.0 9.0 1 1
+ 0.115 2 3 cbr 210 ------- 0 2.0 9.0 4 4
- 0.115 2 3 cbr 210 ------- 0 2.0 9.0 4 4
r 0.11834 2 3 cbr 210 ------- 0 2.0 9.0 2 2
+ 0.11834 3 4 cbr 210 ------- 0 2.0 9.0 2 2
- 0.11834 3 4 cbr 210 ------- 0 2.0 9.0 2 2
+ 0.11875 2 3 cbr 210 ------- 0 2.0 9.0 5 5
- 0.11875 2 3 cbr 210 ------- 0 2.0 9.0 5 5
r 0.12168 3 4 cbr 210 ------- 0 2.0 9.0 0 0
+ 0.12168 4 5 cbr 210 ------- 0 2.0 9.0 0 0
- 0.12168 4 5 cbr 210 ------- 0 2.0 9.0 0 0
r 0.12209 2 3 cbr 210 ------- 0 2.0 9.0 3 3
+ 0.12209 3 4 cbr 210 ------- 0 2.0 9.0 3 3
- 0.12209 3 4 cbr 210 ------- 0 2.0 9.0 3 3
+ 0.1225 2 3 cbr 210 ------- 0 2.0 9.0 6 6
- 0.1225 2 3 cbr 210 ------- 0 2.0 9.0 6 6
r 0.12543 3 4 cbr 210 ------- 0 2.0 9.0 1 1
+ 0.12543 4 5 cbr 210 ------- 0 2.0 9.0 1 1
r 0.12584 2 3 cbr 210 ------- 0 2.0 9.0 4 4
+ 0.12584 3 4 cbr 210 ------- 0 2.0 9.0 4 4
- 0.12584 3 4 cbr 210 ------- 0 2.0 9.0 4 4
+ 0.12625 2 3 cbr 210 ------- 0 2.0 9.0 7 7
- 0.12625 2 3 cbr 210 ------- 0 2.0 9.0 7 7
- 0.12728 4 5 cbr 210 ------- 0 2.0 9.0 1 1
r 0.12918 3 4 cbr 210 ------- 0 2.0 9.0 2 2
+ 0.12918 4 5 cbr 210 ------- 0 2.0 9.0 2 2
r 0.12959 2 3 cbr 210 ------- 0 2.0 9.0 5 5
+ 0.12959 3 4 cbr 210 ------- 0 2.0 9.0 5 5
- 0.12959 3 4 cbr 210 ------- 0 2.0 9.0 5 5
+ 0.13 2 3 cbr 210 ------- 0 2.0 9.0 8 8
- 0.13 2 3 cbr 210 ------- 0 2.0 9.0 8 8
- 0.13288 4 5 cbr 210 ------- 0 2.0 9.0 2 2
r 0.13293 3 4 cbr 210 ------- 0 2.0 9.0 3 3
+ 0.13293 4 5 cbr 210 ------- 0 2.0 9.0 3 3
r 0.13334 2 3 cbr 210 ------- 0 2.0 9.0 6 6
+ 0.13334 3 4 cbr 210 ------- 0 2.0 9.0 6 6
- 0.13334 3 4 cbr 210 ------- 0 2.0 9.0 6 6
+ 0.13375 2 3 cbr 210 ------- 0 2.0 9.0 9 9
- 0.13375 2 3 cbr 210 ------- 0 2.0 9.0 9 9
r 0.13668 3 4 cbr 210 ------- 0 2.0 9.0 4 4
+ 0.13668 4 5 cbr 210 ------- 0 2.0 9.0 4 4
r 0.13709 2 3 cbr 210 ------- 0 2.0 9.0 7 7
+ 0.13709 3 4 cbr 210 ------- 0 2.0 9.0 7 7
- 0.13709 3 4 cbr 210 ------- 0 2.0 9.0 7 7
+ 0.1375 2 3 cbr 210 ------- 0 2.0 9.0 10 10
- 0.1375 2 3 cbr 210 ------- 0 2.0 9.0 10 10
- 0.13848 4 5 cbr 210 ------- 0 2.0 9.0 3 3
r 0.14043 3 4 cbr 210 ------- 0 2.0 9.0 5 5
+ 0.14043 4 5 cbr 210 ------- 0 2.0 9.0 5 5
r 0.14084 2 3 cbr 210 ------- 0 2.0 9.0 8 8
+ 0.14084 3 4 cbr 210 ------- 0 2.0 9.0 8 8
- 0.14084 3 4 cbr 210 ------- 0 2.0 9.0 8 8
+ 0.14125 2 3 cbr 210 ------- 0 2.0 9.0 11 11
- 0.14125 2 3 cbr 210 ------- 0 2.0 9.0 11 11
- 0.14408 4 5 cbr 210 ------- 0 2.0 9.0 4 4
r 0.14418 3 4 cbr 210 ------- 0 2.0 9.0 6 6
+ 0.14418 4 5 cbr 210 ------- 0 2.0 9.0 6 6
r 0.14459 2 3 cbr 210 ------- 0 2.0 9.0 9 9
+ 0.14459 3 4 cbr 210 ------- 0 2.0 9.0 9 9
- 0.14459 3 4 cbr 210 ------- 0 2.0 9.0 9 9
+ 0.145 2 3 cbr 210 ------- 0 2.0 9.0 12 12
- 0.145 2 3 cbr 210 ------- 0 2.0 9.0 12 12
r 0.14793 3 4 cbr 210 ------- 0 2.0 9.0 7 7
+ 0.14793 4 5 cbr 210 ------- 0 2.0 9.0 7 7
r 0.14834 2 3 cbr 210 ------- 0 2.0 9.0 10 10
+ 0.14834 3 4 cbr 210 ------- 0 2.0 9.0 10 10
- 0.14834 3 4 cbr 210 ------- 0 2.0 9.0 10 10
+ 0.14875 2 3 cbr 210 ------- 0 2.0 9.0 13 13
- 0.14875 2 3 cbr 210 ------- 0 2.0 9.0 13 13
- 0.14968 4 5 cbr 210 ------- 0 2.0 9.0 5 5
r 0.15168 3 4 cbr 210 ------- 0 2.0 9.0 8 8
+ 0.15168 4 5 cbr 210 ------- 0 2.0 9.0 8 8
r 0.15209 2 3 cbr 210 ------- 0 2.0 9.0 11 11
+ 0.15209 3 4 cbr 210 ------- 0 2.0 9.0 11 11
- 0.15209 3 4 cbr 210 ------- 0 2.0 9.0 11 11
+ 0.1525 2 3 cbr 210 ------- 0 2.0 9.0 14 14
- 0.1525 2 3 cbr 210 ------- 0 2.0 9.0 14 14
- 0.15528 4 5 cbr 210 ------- 0 2.0 9.0 6 6
r 0.15543 3 4 cbr 210 ------- 0 2.0 9.0 9 9
+ 0.15543 4 5 cbr 210 ------- 0 2.0 9.0 9 9
r 0.15584 2 3 cbr 210 ------- 0 2.0 9.0 12 12
+ 0.15584 3 4 cbr 210 ------- 0 2.0 9.0 12 12
- 0.15584 3 4 cbr 210 ------- 0 2.0 9.0 12 12
+ 0.15625 2 3 cbr 210 ------- 0 2.0 9.0 15 15
- 0.15625 2 3 cbr 210 ------- 0 2.0 9.0 15 15
r 0.15918 3 4 cbr 210 ------- 0 2.0 9.0 10 10
+ 0.15918 4 5 cbr 210 ------- 0 2.0 9.0 10 10
r 0.15959 2 3 cbr 210 ------- 0 2.0 9.0 13 13
+ 0.15959 3 4 cbr 210 ------- 0 2.0 9.0 13 13
- 0.15959 3 4 cbr 210 ------- 0 2.0 9.0 13 13
+ 0.16 2 3 cbr 210 ------- 0 2.0 9.0 16 16
- 0.16 2 3 cbr 210 ------- 0 2.0 9.0 16 16
- 0.16088 4 5 cbr 210 ------- 0 2.0 9.0 7 7
r 0.16293 3 4 cbr 210 ------- 0 2.0 9.0 11 11
+ 0.16293 4 5 cbr 210 ------- 0 2.0 9.0 11 11
r 0.16334 2 3 cbr 210 ------- 0 2.0 9.0 14 14
+ 0.16334 3 4 cbr 210 ------- 0 2.0 9.0 14 14
- 0.16334 3 4 cbr 210 ------- 0 2.0 9.0 14 14
+ 0.16375 2 3 cbr 210 ------- 0 2.0 9.0 17 17
- 0.16375 2 3 cbr 210 ------- 0 2.0 9.0 17 17
- 0.16648 4 5 cbr 210 ------- 0 2.0 9.0 8 8
r 0.16668 3 4 cbr 210 ------- 0 2.0 9.0 12 12
+ 0.16668 4 5 cbr 210 ------- 0 2.0 9.0 12 12
r 0.16709 2 3 cbr 210 ------- 0 2.0 9.0 15 15
+ 0.16709 3 4 cbr 210 ------- 0 2.0 9.0 15 15
- 0.16709 3 4 cbr 210 ------- 0 2.0 9.0 15 15
+ 0.1675 2 3 cbr 210 ------- 0 2.0 9.0 18 18
- 0.1675 2 3 cbr 210 ------- 0 2.0 9.0 18 18
r 0.17043 3 4 cbr 210 ------- 0 2.0 9.0 13 13
+ 0.17043 4 5 cbr 210 ------- 0 2.0 9.0 13 13
r 0.17084 2 3 cbr 210 ------- 0 2.0 9.0 16 16
+ 0.17084 3 4 cbr 210 ------- 0 2.0 9.0 16 16
- 0.17084 3 4 cbr 210 ------- 0 2.0 9.0 16 16
+ 0.17125 2 3 cbr 210 ------- 0 2.0 9.0 19 19
- 0.17125 2 3 cbr 210 ------- 0 2.0 9.0 19 19
- 0.17208 4 5 cbr 210 ------- 0 2.0 9.0 9 9
r 0.17418 3 4 cbr 210 ------- 0 2.0 9.0 14 14
+ 0.17418 4 5 cbr 210 ------- 0 2.0 9.0 14 14
r 0.17459 2 3 cbr 210 ------- 0 2.0 9.0 17 17
+ 0.17459 3 4 cbr 210 ------- 0 2.0 9.0 17 17
- 0.17459 3 4 cbr 210 ------- 0 2.0 9.0 17 17
+ 0.175 2 3 cbr 210 ------- 0 2.0 9.0 20 20
- 0.175 2 3 cbr 210 ------- 0 2.0 9.0 20 20
- 0.17768 4 5 cbr 210 ------- 0 2.0 9.0 10 10
r 0.17793 3 4 cbr 210 ------- 0 2.0 9.0 15 15
+ 0.17793 4 5 cbr 210 ------- 0 2.0 9.0 15 15
r 0.17834 2 3 cbr 210 ------- 0 2.0 9.0 18 18
+ 0.17834 3 4 cbr 210 ------- 0 2.0 9.0 18 18
- 0.17834 3 4 cbr 210 ------- 0 2.0 9.0 18 18
+ 0.17875 2 3 cbr 210 ------- 0 2.0 9.0 21 21
- 0.17875 2 3 cbr 210 ------- 0 2.0 9.0 21 21
r 0.18168 3 4 cbr 210 ------- 0 2.0 9.0 16 16
+ 0.18168 4 5 cbr 210 ------- 0 2.0 9.0 16 16
r 0.18209 2 3 cbr 210 ------- 0 2.0 9.0 19 19
+ 0.18209 3 4 cbr 210 ------- 0 2.0 9.0 19 19
- 0.18209 3 4 cbr 210 ------- 0 2.0 9.0 19 19
+ 0.1825 2 3 cbr 210 ------- 0 2.0 9.0 22 22
- 0.1825 2 3 cbr 210 ------- 0 2.0 9.0 22 22
- 0.18328 4 5 cbr 210 ------- 0 2.0 9.0 11 11
r 0.18543 3 4 cbr 210 ------- 0 2.0 9.0 17 17
+ 0.18543 4 5 cbr 210 ------- 0 2.0 9.0 17 17
r 0.18584 2 3 cbr 210 ------- 0 2.0 9.0 20 20
+ 0.18584 3 4 cbr 210 ------- 0 2.0 9.0 20 20
- 0.18584 3 4 cbr 210 ------- 0 2.0 9.0 20 20
+ 0.18625 2 3 cbr 210 ------- 0 2.0 9.0 23 23
- 0.18625 2 3 cbr 210 ------- 0 2.0 9.0 23 23
- 0.18888 4 5 cbr 210 ------- 0 2.0 9.0 12 12
r 0.18918 3 4 cbr 210 ------- 0 2.0 9.0 18 18
+ 0.18918 4 5 cbr 210 ------- 0 2.0 9.0 18 18
r 0.18959 2 3 cbr 210 ------- 0 2.0 9.0 21 21
+ 0.18959 3 4 cbr 210 ------- 0 2.0 9.0 21 21
- 0.18959 3 4 cbr 210 ------- 0 2.0 9.0 21 21
+ 0.19 2 3 cbr 210 ------- 0 2.0 9.0 24 24
- 0.19 2 3 cbr 210 ------- 0 2.0 9.0 24 24
r 0.19293 3 4 cbr 210 ------- 0 2.0 9.0 19 19
+ 0.19293 4 5 cbr 210 ------- 0 2.0 9.0 19 19
r 0.19334 2 3 cbr 210 ------- 0 2.0 9.0 22 22
+ 0.19334 3 4 cbr 210 ------- 0 2.0 9.0 22 22
- 0.19334 3 4 cbr 210 ------- 0 2.0 9.0 22 22
+ 0.19375 2 3 cbr 210 ------- 0 2.0 9.0 25 25
- 0.19375 2 3 cbr 210 ------- 0 2.0 9.0 25 25
- 0.19448 4 5 cbr 210 ------- 0 2.0 9.0 13 13
r 0.19668 3 4 cbr 210 ------- 0 2.0 9.0 20 20
+ 0.19668 4 5 cbr 210 ------- 0 2.0 9.0 20 20
r 0.19709 2 3 cbr 210 ------- 0 2.0 9.0 23 23
+ 0.19709 3 4 cbr 210 ------- 0 2.0 9.0 23 23
- 0.19709 3 4 cbr 210 ------- 0 2.0 9.0 23 23
+ 0.1975 2 3 cbr 210 ------- 0 2.0 9.0 26 26
- 0.1975 2 3 cbr 210 ------- 0 2.0 9.0 26 26
- 0.20008 4 5 cbr 210 ------- 0 2.0 9.0 14 14
r 0.20043 3 4 cbr 210 ------- 0 2.0 9.0 21 21
+ 0.20043 4 5 cbr 210 ------- 0 2.0 9.0 21 21
r 0.20084 2 3 cbr 210 ------- 0 2.0 9.0 24 24
+ 0.20084 3 4 cbr 210 ------- 0 2.0 9.0 24 24
- 0.20084 3 4 cbr 210 ------- 0 2.0 9.0 24 24
+ 0.20125 2 3 cbr 210 ------- 0 2.0 9.0 27 27
- 0.20125 2 3 cbr 210 ------- 0 2.0 9.0 27 27
r 0.20418 3 4 cbr 210 ------- 0 2.0 9.0 22 22
+ 0.20418 4 5 cbr 210 ------- 0 2.0 9.0 22 22
r 0.20459 2 3 cbr 210 ------- 0 2.0 9.0 25 25
+ 0.20459 3 4 cbr 210 ------- 0 2.0 9.0 25 25
- 0.20459 3 4 cbr 210 ------- 0 2.0 9.0 25 25
+ 0.205 2 3 cbr 210 ------- 0 2.0 9.0 28 28
- 0.205 2 3 cbr 210 ------- 0 2.0 9.0 28 28
- 0.20568 4 5 cbr 210 ------- 0 2.0 9.0 15 15
r 0.20793 3 4 cbr 210 ------- 0 2.0 9.0 23 23
+ 0.20793 4 5 cbr 210 ------- 0 2.0 9.0 23 23
r 0.20834 2 3 cbr 210 ------- 0 2.0 9.0 26 26
+ 0.20834 3 4 cbr 210 ------- 0 2.0 9.0 26 26
- 0.20834 3 4 cbr 210 ------- 0 2.0 9.0 26 26
+ 0.20875 2 3 cbr 210 ------- 0 2.0 9.0 29 29
- 0.20875 2 3 cbr 210 ------- 0 2.0 9.0 29 29
- 0.21128 4 5 cbr 210 ------- 0 2.0 9.0 16 16
r 0.21168 3 4 cbr 210 ------- 0 2.0 9.0 24 24
+ 0.21168 4 5 cbr 210 ------- 0 2.0 9.0 24 24
r 0.21209 2 3 cbr 210 ------- 0 2.0 9.0 27 27
+ 0.21209 3 4 cbr 210 ------- 0 2.0 9.0 27 27
- 0.21209 3 4 cbr 210 ------- 0 2.0 9.0 27 27
+ 0.2125 2 3 cbr 210 ------- 0 2.0 9.0 30 30
- 0.2125 2 3 cbr 210 ------- 0 2.0 9.0 30 30
r 0.21543 3 4 cbr 210 ------- 0 2.0 9.0 25 25
+ 0.21543 4 5 cbr 210 ------- 0 2.0 9.0 25 25
r 0.21584 2 3 cbr 210 ------- 0 2.0 9.0 28 28
+ 0.21584 3 4 cbr 210 ------- 0 2.0 9.0 28 28
- 0.21584 3 4 cbr 210 ------- 0 2.0 9.0 28 28
+ 0.21625 2 3 cbr 210 ------- 0 2.0 9.0 31 31
- 0.21625 2 3 cbr 210 ------- 0 2.0 9.0 31 31
- 0.21688 4 5 cbr 210 ------- 0 2.0 9.0 17 17
r 0.21918 3 4 cbr 210 ------- 0 2.0 9.0 26 26
+ 0.21918 4 5 cbr 210 ------- 0 2.0 9.0 26 26
r 0.21959 2 3 cbr 210 ------- 0 2.0 9.0 29 29
+ 0.21959 3 4 cbr 210 ------- 0 2.0 9.0 29 29
- 0.21959 3 4 cbr 210 ------- 0 2.0 9.0 29 29
+ 0.22 2 3 cbr 210 ------- 0 2.0 9.0 32 32
- 0.22 2 3 cbr 210 ------- 0 2.0 9.0 32 32
- 0.22248 4 5 cbr 210 ------- 0 2.0 9.0 18 18
r 0.22293 3 4 cbr 210 ------- 0 2.0 9.0 27 27
+ 0.22293 4 5 cbr 210 ------- 0 2.0 9.0 27 27
r 0.22334 2 3 cbr 210 ------- 0 2.0 9.0 30 30
+ 0.22334 3 4 cbr 210 ------- 0 2.0 9.0 30 30
- 0.22334 3 4 cbr 210 ------- 0 2.0 9.0 30 30
+ 0.22375 2 3 cbr 210 ------- 0 2.0 9.0 33 33
- 0.22375 2 3 cbr 210 ------- 0 2.0 9.0 33 33
r 0.22668 3 4 cbr 210 ------- 0 2.0 9.0 28 28
+ 0.22668 4 5 cbr 210 ------- 0 2.0 9.0 28 28
r 0.22709 2 3 cbr 210 ------- 0 2.0 9.0 31 31
+ 0.22709 3 4 cbr 210 ------- 0 2.0 9.0 31 31
- 0.22709 3 4 cbr 210 ------- 0 2.0 9.0 31 31
r 0.22728 4 5 cbr 210 ------- 0 2.0 9.0 0 0
+ 0.22728 5 7 cbr 210 ------- 0 2.0 9.0 0 0
- 0.22728 5 7 cbr 210 ------- 0 2.0 9.0 0 0
+ 0.2275 2 3 cbr 210 ------- 0 2.0 9.0 34 34
- 0.2275 2 3 cbr 210 ------- 0 2.0 9.0 34 34
- 0.22808 4 5 cbr 210 ------- 0 2.0 9.0 19 19
r 0.23043 3 4 cbr 210 ------- 0 2.0 9.0 29 29
+ 0.23043 4 5 cbr 210 ------- 0 2.0 9.0 29 29
r 0.23084 2 3 cbr 210 ------- 0 2.0 9.0 32 32
+ 0.23084 3 4 cbr 210 ------- 0 2.0 9.0 32 32
- 0.23084 3 4 cbr 210 ------- 0 2.0 9.0 32 32
+ 0.23125 2 3 cbr 210 ------- 0 2.0 9.0 35 35
- 0.23125 2 3 cbr 210 ------- 0 2.0 9.0 35 35
r 0.23288 4 5 cbr 210 ------- 0 2.0 9.0 1 1
+ 0.23288 5 7 cbr 210 ------- 0 2.0 9.0 1 1
- 0.23288 5 7 cbr 210 ------- 0 2.0 9.0 1 1
- 0.23368 4 5 cbr 210 ------- 0 2.0 9.0 20 20
r 0.23418 3 4 cbr 210 ------- 0 2.0 9.0 30 30
+ 0.23418 4 5 cbr 210 ------- 0 2.0 9.0 30 30
r 0.23459 2 3 cbr 210 ------- 0 2.0 9.0 33 33
+ 0.23459 3 4 cbr 210 ------- 0 2.0 9.0 33 33
- 0.23459 3 4 cbr 210 ------- 0 2.0 9.0 33 33
+ 0.235 2 3 cbr 210 ------- 0 2.0 9.0 36 36
- 0.235 2 3 cbr 210 ------- 0 2.0 9.0 36 36
r 0.23793 3 4 cbr 210 ------- 0 2.0 9.0 31 31
+ 0.23793 4 5 cbr 210 ------- 0 2.0 9.0 31 31
r 0.23834 2 3 cbr 210 ------- 0 2.0 9.0 34 34
+ 0.23834 3 4 cbr 210 ------- 0 2.0 9.0 34 34
- 0.23834 3 4 cbr 210 ------- 0 2.0 9.0 34 34
r 0.23848 4 5 cbr 210 ------- 0 2.0 9.0 2 2
+ 0.23848 5 7 cbr 210 ------- 0 2.0 9.0 2 2
- 0.23848 5 7 cbr 210 ------- 0 2.0 9.0 2 2
+ 0.23875 2 3 cbr 210 ------- 0 2.0 9.0 37 37
- 0.23875 2 3 cbr 210 ------- 0 2.0 9.0 37 37
- 0.23928 4 5 cbr 210 ------- 0 2.0 9.0 21 21
r 0.24168 3 4 cbr 210 ------- 0 2.0 9.0 32 32
+ 0.24168 4 5 cbr 210 ------- 0 2.0 9.0 32 32
r 0.24209 2 3 cbr 210 ------- 0 2.0 9.0 35 35
+ 0.24209 3 4 cbr 210 ------- 0 2.0 9.0 35 35
- 0.24209 3 4 cbr 210 ------- 0 2.0 9.0 35 35
+ 0.2425 2 3 cbr 210 ------- 0 2.0 9.0 38 38
- 0.2425 2 3 cbr 210 ------- 0 2.0 9.0 38 38
r 0.24408 4 5 cbr 210 ------- 0 2.0 9.0 3 3
+ 0.24408 5 7 cbr 210 ------- 0 2.0 9.0 3 3
- 0.24408 5 7 cbr 210 ------- 0 2.0 9.0 3 3
- 0.24488 4 5 cbr 210 ------- 0 2.0 9.0 22 22
r 0.24543 3 4 cbr 210 ------- 0 2.0 9.0 33 33
+ 0.24543 4 5 cbr 210 ------- 0 2.0 9.0 33 33
r 0.24584 2 3 cbr 210 ------- 0 2.0 9.0 36 36
+ 0.24584 3 4 cbr 210 ------- 0 2.0 9.0 36 36
- 0.24584 3 4 cbr 210 ------- 0 2.0 9.0 36 36
+ 0.24625 2 3 cbr 210 ------- 0 2.0 9.0 39 39
- 0.24625 2 3 cbr 210 ------- 0 2.0 9.0 39 39
r 0.24918 3 4 cbr 210 ------- 0 2.0 9.0 34 34
+ 0.24918 4 5 cbr 210 ------- 0 2.0 9.0 34 34
r 0.24959 2 3 cbr 210 ------- 0 2.0 9.0 37 37
+ 0.24959 3 4 cbr 210 ------- 0 2.0 9.0 37 37
- 0.24959 3 4 cbr 210 ------- 0 2.0 9.0 37 37
r 0.24968 4 5 cbr 210 ------- 0 2.0 9.0 4 4
+ 0.24968 5 7 cbr 210 ------- 0 2.0 9.0 4 4
- 0.24968 5 7 cbr 210 ------- 0 2.0 9.0 4 4
+ 0.25 2 3 cbr 210 ------- 0 2.0 9.0 40 40
- 0.25 2 3 cbr 210 ------- 0 2.0 9.0 40 40
- 0.25048 4 5 cbr 210 ------- 0 2.0 9.0 23 23
r 0.25293 3 4 cbr 210 ------- 0 2.0 9.0 35 35
+ 0.25293 4 5 cbr 210 ------- 0 2.0 9.0 35 35
r 0.25334 2 3 cbr 210 ------- 0 2.0 9.0 38 38
+ 0.25334 3 4 cbr 210 ------- 0 2.0 9.0 38 38
- 0.25334 3 4 cbr 210 ------- 0 2.0 9.0 38 38
+ 0.25375 2 3 cbr 210 ------- 0 2.0 9.0 41 41
- 0.25375 2 3 cbr 210 ------- 0 2.0 9.0 41 41
r 0.25528 4 5 cbr 210 ------- 0 2.0 9.0 5 5
+ 0.25528 5 7 cbr 210 ------- 0 2.0 9.0 5 5
- 0.25528 5 7 cbr 210 ------- 0 2.0 9.0 5 5
- 0.25608 4 5 cbr 210 ------- 0 2.0 9.0 24 24
r 0.25668 3 4 cbr 210 ------- 0 2.0 9.0 36 36
+ 0.25668 4 5 cbr 210 ------- 0 2.0 9.0 36 36
r 0.25709 2 3 cbr 210 ------- 0 2.0 9.0 39 39
+ 0.25709 3 4 cbr 210 ------- 0 2.0 9.0 39 39
- 0.25709 3 4 cbr 210 ------- 0 2.0 9.0 39 39
+ 0.2575 2 3 cbr 210 ------- 0 2.0 9.0 42 42
- 0.2575 2 3 cbr 210 ------- 0 2.0 9.0 42 42
r 0.26043 3 4 cbr 210 ------- 0 2.0 9.0 37 37
+ 0.26043 4 5 cbr 210 ------- 0 2.0 9.0 37 37
r 0.26064 5 7 cbr 210 ------- 0 2.0 9.0 0 0
+ 0.26064 7 9 cbr 210 ------- 0 2.0 9.0 0 0
- 0.26064 7 9 cbr 210 ------- 0 2.0 9.0 0 0
r 0.26084 2 3 cbr 210 ------- 0 2.0 9.0 40 40
+ 0.26084 3 4 cbr 210 ------- 0 2.0 9.0 40 40
- 0.26084 3 4 cbr 210 ------- 0 2.0 9.0 40 40
r 0.26088 4 5 cbr 210 ------- 0 2.0 9.0 6 6
+ 0.26088 5 7 cbr 210 ------- 0 2.0 9.0 6 6
- 0.26088 5 7 cbr 210 ------- 0 2.0 9.0 6 6
+ 0.26125 2 3 cbr 210 ------- 0 2.0 9.0 43 43
- 0.26125 2 3 cbr 210 ------- 0 2.0 9.0 43 43
- 0.26168 4 5 cbr 210 ------- 0 2.0 9.0 25 25
r 0.26418 3 4 cbr 210 ------- 0 2.0 9.0 38 38
+ 0.26418 4 5 cbr 210 ------- 0 2.0 9.0 38 38
r 0.26459 2 3 cbr 210 ------- 0 2.0 9.0 41 41
+ 0.26459 3 4 cbr 210 ------- 0 2.0 9.0 41 41
- 0.26459 3 4 cbr 210 ------- 0 2.0 9.0 41 41
+ 0.265 2 3 cbr 210 ------- 0 2.0 9.0 44 44
- 0.265 2 3 cbr 210 ------- 0 2.0 9.0 44 44
r 0.26624 5 7 cbr 210 ------- 0 2.0 9.0 1 1
+ 0.26624 7 9 cbr 210 ------- 0 2.0 9.0 1 1
- 0.26624 7 9 cbr 210 ------- 0 2.0 9.0 1 1
r 0.26648 4 5 cbr 210 ------- 0 2.0 9.0 7 7
+ 0.26648 5 7 cbr 210 ------- 0 2.0 9.0 7 7
- 0.26648 5 7 cbr 210 ------- 0 2.0 9.0 7 7
- 0.26728 4 5 cbr 210 ------- 0 2.0 9.0 26 26
r 0.26793 3 4 cbr 210 ------- 0 2.0 9.0 39 39
+ 0.26793 4 5 cbr 210 ------- 0 2.0 9.0 39 39
r 0.26834 2 3 cbr 210 ------- 0 2.0 9.0 42 42
+ 0.26834 3 4 cbr 210 ------- 0 2.0 9.0 42 42
- 0.26834 3 4 cbr 210 ------- 0 2.0 9.0 42 42
+ 0.26875 2 3 cbr 210 ------- 0 2.0 9.0 45 45
- 0.26875 2 3 cbr 210 ------- 0 2.0 9.0 45 45
r 0.27168 3 4 cbr 210 ------- 0 2.0 9.0 40 40
+ 0.27168 4 5 cbr 210 ------- 0 2.0 9.0 40 40
r 0.27184 5 7 cbr 210 ------- 0 2.0 9.0 2 2
+ 0.27184 7 9 cbr 210 ------- 0 2.0 9.0 2 2
- 0.27184 7 9 cbr 210 ------- 0 2.0 9.0 2 2
r 0.27208 4 5 cbr 210 ------- 0 2.0 9.0 8 8
+ 0.27208 5 7 cbr 210 ------- 0 2.0 9.0 8 8
- 0.27208 5 7 cbr 210 ------- 0 2.0 9.0 8 8
r 0.27209 2 3 cbr 210 ------- 0 2.0 9.0 43 43
+ 0.27209 3 4 cbr 210 ------- 0 2.0 9.0 43 43
- 0.27209 3 4 cbr 210 ------- 0 2.0 9.0 43 43
+ 0.2725 2 3 cbr 210 ------- 0 2.0 9.0 46 46
- 0.2725 2 3 cbr 210 ------- 0 2.0 9.0 46 46
- 0.27288 4 5 cbr 210 ------- 0 2.0 9.0 27 27
r 0.27543 3 4 cbr 210 ------- 0 2.0 9.0 41 41
+ 0.27543 4 5 cbr 210 ------- 0 2.0 9.0 41 41
r 0.27584 2 3 cbr 210 ------- 0 2.0 9.0 44 44
+ 0.27584 3 4 cbr 210 ------- 0 2.0 9.0 44 44
- 0.27584 3 4 cbr 210 ------- 0 2.0 9.0 44 44
+ 0.27625 2 3 cbr 210 ------- 0 2.0 9.0 47 47
- 0.27625 2 3 cbr 210 ------- 0 2.0 9.0 47 47
r 0.27744 5 7 cbr 210 ------- 0 2.0 9.0 3 3
+ 0.27744 7 9 cbr 210 ------- 0 2.0 9.0 3 3
- 0.27744 7 9 cbr 210 ------- 0 2.0 9.0 3 3
r 0.27768 4 5 cbr 210 ------- 0 2.0 9.0 9 9
+ 0.27768 5 7 cbr 210 ------- 0 2.0 9.0 9 9
- 0.27768 5 7 cbr 210 ------- 0 2.0 9.0 9 9
- 0.27848 4 5 cbr 210 ------- 0 2.0 9.0 28 28
r 0.27918 3 4 cbr 210 ------- 0 2.0 9.0 42 42
+ 0.27918 4 5 cbr 210 ------- 0 2.0 9.0 42 42
r 0.27959 2 3 cbr 210 ------- 0 2.0 9.0 45 45
+ 0.27959 3 4 cbr 210 ------- 0 2.0 9.0 45 45
- 0.27959 3 4 cbr 210 ------- 0 2.0 9.0 45 45
+ 0.28 2 3 cbr 210 ------- 0 2.0 9.0 48 48
- 0.28 2 3 cbr 210 ------- 0 2.0 9.0 48 48
r 0.28293 3 4 cbr 210 ------- 0 2.0 9.0 43 43
+ 0.28293 4 5 cbr 210 ------- 0 2.0 9.0 43 43
r 0.28304 5 7 cbr 210 ------- 0 2.0 9.0 4 4
+ 0.28304 7 9 cbr 210 ------- 0 2.0 9.0 4 4
- 0.28304 7 9 cbr 210 ------- 0 2.0 9.0 4 4
r 0.28328 4 5 cbr 210 ------- 0 2.0 9.0 10 10
+ 0.28328 5 7 cbr 210 ------- 0 2.0 9.0 10 10
- 0.28328 5 7 cbr 210 ------- 0 2.0 9.0 10 10
r 0.28334 2 3 cbr 210 ------- 0 2.0 9.0 46 46
+ 0.28334 3 4 cbr 210 ------- 0 2.0 9.0 46 46
- 0.28334 3 4 cbr 210 ------- 0 2.0 9.0 46 46
+ 0.28375 2 3 cbr 210 ------- 0 2.0 9.0 49 49
- 0.28375 2 3 cbr 210 ------- 0 2.0 9.0 49 49
- 0.28408 4 5 cbr 210 ------- 0 2.0 9.0 29 29
r 0.28668 3 4 cbr 210 ------- 0 2.0 9.0 44 44
+ 0.28668 4 5 cbr 210 ------- 0 2.0 9.0 44 44
r 0.28709 2 3 cbr 210 ------- 0 2.0 9.0 47 47
+ 0.28709 3 4 cbr 210 ------- 0 2.0 9.0 47 47
- 0.28709 3 4 cbr 210 ------- 0 2.0 9.0 47 47
+ 0.2875 2 3 cbr 210 ------- 0 2.0 9.0 50 50
- 0.2875 2 3 cbr 210 ------- 0 2.0 9.0 50 50
r 0.28864 5 7 cbr 210 ------- 0 2.0 9.0 5 5
+ 0.28864 7 9 cbr 210 ------- 0 2.0 9.0 5 5
- 0.28864 7 9 cbr 210 ------- 0 2.0 9.0 5 5
r 0.28888 4 5 cbr 210 ------- 0 2.0 9.0 11 11
+ 0.28888 5 7 cbr 210 ------- 0 2.0 9.0 11 11
- 0.28888 5 7 cbr 210 ------- 0 2.0 9.0 11 11
- 0.28968 4 5 cbr 210 ------- 0 2.0 9.0 30 30
r 0.29043 3 4 cbr 210 ------- 0 2.0 9.0 45 45
+ 0.29043 4 5 cbr 210 ------- 0 2.0 9.0 45 45
r 0.29084 2 3 cbr 210 ------- 0 2.0 9.0 48 48
+ 0.29084 3 4 cbr 210 ------- 0 2.0 9.0 48 48
- 0.29084 3 4 cbr 210 ------- 0 2.0 9.0 48 48
+ 0.29125 2 3 cbr 210 ------- 0 2.0 9.0 51 51
- 0.29125 2 3 cbr 210 ------- 0 2.0 9.0 51 51
r 0.294 7 9 cbr 210 ------- 0 2.0 9.0 0 0
r 0.29418 3 4 cbr 210 ------- 0 2.0 9.0 46 46
+ 0.29418 4 5 cbr 210 ------- 0 2.0 9.0 46 46
r 0.29424 5 7 cbr 210 ------- 0 2.0 9.0 6 6
+ 0.29424 7 9 cbr 210 ------- 0 2.0 9.0 6 6
- 0.29424 7 9 cbr 210 ------- 0 2.0 9.0 6 6
r 0.29448 4 5 cbr 210 ------- 0 2.0 9.0 12 12
+ 0.29448 5 7 cbr 210 ------- 0 2.0 9.0 12 12
- 0.29448 5 7 cbr 210 ------- 0 2.0 9.0 12 12
r 0.29459 2 3 cbr 210 ------- 0 2.0 9.0 49 49
+ 0.29459 3 4 cbr 210 ------- 0 2.0 9.0 49 49
- 0.29459 3 4 cbr 210 ------- 0 2.0 9.0 49 49
+ 0.295 2 3 cbr 210 ------- 0 2.0 9.0 52 52
- 0.295 2 3 cbr 210 ------- 0 2.0 9.0 52 52
- 0.29528 4 5 cbr 210 ------- 0 2.0 9.0 31 31
r 0.29793 3 4 cbr 210 ------- 0 2.0 9.0 47 47
+ 0.29793 4 5 cbr 210 ------- 0 2.0 9.0 47 47
r 0.29834 2 3 cbr 210 ------- 0 2.0 9.0 50 50
+ 0.29834 3 4 cbr 210 ------- 0 2.0 9.0 50 50
- 0.29834 3 4 cbr 210 ------- 0 2.0 9.0 50 50
+ 0.29875 2 3 cbr 210 ------- 0 2.0 9.0 53 53
- 0.29875 2 3 cbr 210 ------- 0 2.0 9.0 53 53
r 0.2996 7 9 cbr 210 ------- 0 2.0 9.0 1 1
r 0.29984 5 7 cbr 210 ------- 0 2.0 9.0 7 7
+ 0.29984 7 9 cbr 210 ------- 0 2.0 9.0 7 7
- 0.29984 7 9 cbr 210 ------- 0 2.0 9.0 7 7
r 0.30008 4 5 cbr 210 ------- 0 2.0 9.0 13 13
+ 0.30008 5 7 cbr 210 ------- 0 2.0 9.0 13 13
- 0.30008 5 7 cbr 210 ------- 0 2.0 9.0 13 13
- 0.30088 4 5 cbr 210 ------- 0 2.0 9.0 32 32
r 0.30168 3 4 cbr 210 ------- 0 2.0 9.0 48 48
+ 0.30168 4 5 cbr 210 ------- 0 2.0 9.0 48 48
r 0.30209 2 3 cbr 210 ------- 0 2.0 9.0 51 51
+ 0.30209 3 4 cbr 210 ------- 0 2.0 9.0 51 51
- 0.30209 3 4 cbr 210 ------- 0 2.0 9.0 51 51
+ 0.3025 2 3 cbr 210 ------- 0 2.0 9.0 54 54
- 0.3025 2 3 cbr 210 ------- 0 2.0 9.0 54 54
r 0.3052 7 9 cbr 210 ------- 0 2.0 9.0 2 2
r 0.30543 3 4 cbr 210 ------- 0 2.0 9.0 49 49
+ 0.30543 4 5 cbr 210 ------- 0 2.0 9.0 49 49
r 0.30544 5 7 cbr 210 ------- 0 2.0 9.0 8 8
+ 0.30544 7 9 cbr 210 ------- 0 2.0 9.0 8 8
- 0.30544 7 9 cbr 210 ------- 0 2.0 9.0 8 8
r 0.30568 4 5 cbr 210 ------- 0 2.0 9.0 14 14
+ 0.30568 5 7 cbr 210 ------- 0 2.0 9.0 14 14
- 0.30568 5 7 cbr 210 ------- 0 2.0 9.0 14 14
r 0.30584 2 3 cbr 210 ------- 0 2.0 9.0 52 52
+ 0.30584 3 4 cbr 210 ------- 0 2.0 9.0 52 52
- 0.30584 3 4 cbr 210 ------- 0 2.0 9.0 52 52
+ 0.30625 2 3 cbr 210 ------- 0 2.0 9.0 55 55
- 0.30625 2 3 cbr 210 ------- 0 2.0 9.0 55 55
- 0.30648 4 5 cbr 210 ------- 0 2.0 9.0 33 33
r 0.30918 3 4 cbr 210 ------- 0 2.0 9.0 50 50
+ 0.30918 4 5 cbr 210 ------- 0 2.0 9.0 50 50
r 0.30959 2 3 cbr 210 ------- 0 2.0 9.0 53 53
+ 0.30959 3 4 cbr 210 ------- 0 2.0 9.0 53 53
- 0.30959 3 4 cbr 210 ------- 0 2.0 9.0 53 53
+ 0.31 2 3 cbr 210 ------- 0 2.0 9.0 56 56
- 0.31 2 3 cbr 210 ------- 0 2.0 9.0 56 56
r 0.3108 7 9 cbr 210 ------- 0 2.0 9.0 3 3
r 0.31104 5 7 cbr 210 ------- 0 2.0 9.0 9 9
+ 0.31104 7 9 cbr 210 ------- 0 2.0 9.0 9 9
- 0.31104 7 9 cbr 210 ------- 0 2.0 9.0 9 9
r 0.31128 4 5 cbr 210 ------- 0 2.0 9.0 15 15
+ 0.31128 5 7 cbr 210 ------- 0 2.0 9.0 15 15
- 0.31128 5 7 cbr 210 ------- 0 2.0 9.0 15 15
- 0.31208 4 5 cbr 210 ------- 0 2.0 9.0 34 34
r 0.31293 3 4 cbr 210 ------- 0 2.0 9.0 51 51
+ 0.31293 4 5 cbr 210 ------- 0 2.0 9.0 51 51
r 0.31334 2 3 cbr 210 ------- 0 2.0 9.0 54 54
+ 0.31334 3 4 cbr 210 ------- 0 2.0 9.0 54 54
- 0.31334 3 4 cbr 210 ------- 0 2.0 9.0 54 54
+ 0.31375 2 3 cbr 210 ------- 0 2.0 9.0 57 57
- 0.31375 2 3 cbr 210 ------- 0 2.0 9.0 57 57
r 0.3164 7 9 cbr 210 ------- 0 2.0 9.0 4 4
r 0.31664 5 7 cbr 210 ------- 0 2.0 9.0 10 10
+ 0.31664 7 9 cbr 210 ------- 0 2.0 9.0 10 10
- 0.31664 7 9 cbr 210 ------- 0 2.0 9.0 10 10
r 0.31668 3 4 cbr 210 ------- 0 2.0 9.0 52 52
+ 0.31668 4 5 cbr 210 ------- 0 2.0 9.0 52 52
r 0.31688 4 5 cbr 210 ------- 0 2.0 9.0 16 16
+ 0.31688 5 7 cbr 210 ------- 0 2.0 9.0 16 16
- 0.31688 5 7 cbr 210 ------- 0 2.0 9.0 16 16
r 0.31709 2 3 cbr 210 ------- 0 2.0 9.0 55 55
+ 0.31709 3 4 cbr 210 ------- 0 2.0 9.0 55 55
- 0.31709 3 4 cbr 210 ------- 0 2.0 9.0 55 55
+ 0.3175 2 3 cbr 210 ------- 0 2.0 9.0 58 58
- 0.3175 2 3 cbr 210 ------- 0 2.0 9.0 58 58
- 0.31768 4 5 cbr 210 ------- 0 2.0 9.0 35 35
r 0.32043 3 4 cbr 210 ------- 0 2.0 9.0 53 53
+ 0.32043 4 5 cbr 210 ------- 0 2.0 9.0 53 53
r 0.32084 2 3 cbr 210 ------- 0 2.0 9.0 56 56
+ 0.32084 3 4 cbr 210 ------- 0 2.0 9.0 56 56
- 0.32084 3 4 cbr 210 ------- 0 2.0 9.0 56 56
+ 0.32125 2 3 cbr 210 ------- 0 2.0 9.0 59 59
- 0.32125 2 3 cbr 210 ------- 0 2.0 9.0 59 59
r 0.322 7 9 cbr 210 ------- 0 2.0 9.0 5 5
r 0.32224 5 7 cbr 210 ------- 0 2.0 9.0 11 11
+ 0.32224 7 9 cbr 210 ------- 0 2.0 9.0 11 11
- 0.32224 7 9 cbr 210 ------- 0 2.0 9.0 11 11
r 0.32248 4 5 cbr 210 ------- 0 2.0 9.0 17 17
+ 0.32248 5 7 cbr 210 ------- 0 2.0 9.0 17 17
- 0.32248 5 7 cbr 210 ------- 0 2.0 9.0 17 17
- 0.32328 4 5 cbr 210 ------- 0 2.0 9.0 36 36
r 0.32418 3 4 cbr 210 ------- 0 2.0 9.0 54 54
+ 0.32418 4 5 cbr 210 ------- 0 2.0 9.0 54 54
r 0.32459 2 3 cbr 210 ------- 0 2.0 9.0 57 57
+ 0.32459 3 4 cbr 210 ------- 0 2.0 9.0 57 57
- 0.32459 3 4 cbr 210 ------- 0 2.0 9.0 57 57
+ 0.325 2 3 cbr 210 ------- 0 2.0 9.0 60 60
- 0.325 2 3 cbr 210 ------- 0 2.0 9.0 60 60
r 0.3276 7 9 cbr 210 ------- 0 2.0 9.0 6 6
r 0.32784 5 7 cbr 210 ------- 0 2.0 9.0 12 12
+ 0.32784 7 9 cbr 210 ------- 0 2.0 9.0 12 12
- 0.32784 7 9 cbr 210 ------- 0 2.0 9.0 12 12
r 0.32793 3 4 cbr 210 ------- 0 2.0 9.0 55 55
+ 0.32793 4 5 cbr 210 ------- 0 2.0 9.0 55 55
r 0.32808 4 5 cbr 210 ------- 0 2.0 9.0 18 18
+ 0.32808 5 7 cbr 210 ------- 0 2.0 9.0 18 18
- 0.32808 5 7 cbr 210 ------- 0 2.0 9.0 18 18
r 0.32834 2 3 cbr 210 ------- 0 2.0 9.0 58 58
+ 0.32834 3 4 cbr 210 ------- 0 2.0 9.0 58 58
- 0.32834 3 4 cbr 210 ------- 0 2.0 9.0 58 58
+ 0.32875 2 3 cbr 210 ------- 0 2.0 9.0 61 61
- 0.32875 2 3 cbr 210 ------- 0 2.0 9.0 61 61
- 0.32888 4 5 cbr 210 ------- 0 2.0 9.0 37 37
r 0.33168 3 4 cbr 210 ------- 0 2.0 9.0 56 56
+ 0.33168 4 5 cbr 210 ------- 0 2.0 9.0 56 56
r 0.33209 2 3 cbr 210 ------- 0 2.0 9.0 59 59
+ 0.33209 3 4 cbr 210 ------- 0 2.0 9.0 59 59
- 0.33209 3 4 cbr 210 ------- 0 2.0 9.0 59 59
+ 0.3325 2 3 cbr 210 ------- 0 2.0 9.0 62 62
- 0.3325 2 3 cbr 210 ------- 0 2.0 9.0 62 62
r 0.3332 7 9 cbr 210 ------- 0 2.0 9.0 7 7
r 0.33344 5 7 cbr 210 ------- 0 2.0 9.0 13 13
+ 0.33344 7 9 cbr 210 ------- 0 2.0 9.0 13 13
- 0.33344 7 9 cbr 210 ------- 0 2.0 9.0 13 13
r 0.33368 4 5 cbr 210 ------- 0 2.0 9.0 19 19
+ 0.33368 5 7 cbr 210 ------- 0 2.0 9.0 19 19
- 0.33368 5 7 cbr 210 ------- 0 2.0 9.0 19 19
- 0.33448 4 5 cbr 210 ------- 0 2.0 9.0 38 38
r 0.33543 3 4 cbr 210 ------- 0 2.0 9.0 57 57
+ 0.33543 4 5 cbr 210 ------- 0 2.0 9.0 57 57
r 0.33584 2 3 cbr 210 ------- 0 2.0 9.0 60 60
+ 0.33584 3 4 cbr 210 ------- 0 2.0 9.0 60 60
- 0.33584 3 4 cbr 210 ------- 0 2.0 9.0 60 60
+ 0.33625 2 3 cbr 210 ------- 0 2.0 9.0 63 63
- 0.33625 2 3 cbr 210 ------- 0 2.0 9.0 63 63
r 0.3388 7 9 cbr 210 ------- 0 2.0 9.0 8 8
r 0.33904 5 7 cbr 210 ------- 0 2.0 9.0 14 14
+ 0.33904 7 9 cbr 210 ------- 0 2.0 9.0 14 14
- 0.33904 7 9 cbr 210 ------- 0 2.0 9.0 14 14
r 0.33918 3 4 cbr 210 ------- 0 2.0 9.0 58 58
+ 0.33918 4 5 cbr 210 ------- 0 2.0 9.0 58 58
r 0.33928 4 5 cbr 210 ------- 0 2.0 9.0 20 20
+ 0.33928 5 7 cbr 210 ------- 0 2.0 9.0 20 20
- 0.33928 5 7 cbr 210 ------- 0 2.0 9.0 20 20
r 0.33959 2 3 cbr 210 ------- 0 2.0 9.0 61 61
+ 0.33959 3 4 cbr 210 ------- 0 2.0 9.0 61 61
- 0.33959 3 4 cbr 210 ------- 0 2.0 9.0 61 61
+ 0.34 2 3 cbr 210 ------- 0 2.0 9.0 64 64
- 0.34 2 3 cbr 210 ------- 0 2.0 9.0 64 64
- 0.34008 4 5 cbr 210 ------- 0 2.0 9.0 39 39
r 0.34293 3 4 cbr 210 ------- 0 2.0 9.0 59 59
+ 0.34293 4 5 cbr 210 ------- 0 2.0 9.0 59 59
r 0.34334 2 3 cbr 210 ------- 0 2.0 9.0 62 62
+ 0.34334 3 4 cbr 210 ------- 0 2.0 9.0 62 62
- 0.34334 3 4 cbr 210 ------- 0 2.0 9.0 62 62
+ 0.34375 2 3 cbr 210 ------- 0 2.0 9.0 65 65
- 0.34375 2 3 cbr 210 ------- 0 2.0 9.0 65 65
r 0.3444 7 9 cbr 210 ------- 0 2.0 9.0 9 9
r 0.34464 5 7 cbr 210 ------- 0 2.0 9.0 15 15
+ 0.34464 7 9 cbr 210 ------- 0 2.0 9.0 15 15
- 0.34464 7 9 cbr 210 ------- 0 2.0 9.0 15 15
r 0.34488 4 5 cbr 210 ------- 0 2.0 9.0 21 21
+ 0.34488 5 7 cbr 210 ------- 0 2.0 9.0 21 21
- 0.34488 5 7 cbr 210 ------- 0 2.0 9.0 21 21
- 0.34568 4 5 cbr 210 ------- 0 2.0 9.0 40 40
r 0.34668 3 4 cbr 210 ------- 0 2.0 9.0 60 60
+ 0.34668 4 5 cbr 210 ------- 0 2.0 9.0 60 60
r 0.34709 2 3 cbr 210 ------- 0 2.0 9.0 63 63
+ 0.34709 3 4 cbr 210 ------- 0 2.0 9.0 63 63
- 0.34709 3 4 cbr 210 ------- 0 2.0 9.0 63 63
+ 0.3475 2 3 cbr 210 ------- 0 2.0 9.0 66 66
- 0.3475 2 3 cbr 210 ------- 0 2.0 9.0 66 66
r 0.35 7 9 cbr 210 ------- 0 2.0 9.0 10 10
r 0.35024 5 7 cbr 210 ------- 0 2.0 9.0 16 16
+ 0.35024 7 9 cbr 210 ------- 0 2.0 9.0 16 16
- 0.35024 7 9 cbr 210 ------- 0 2.0 9.0 16 16
r 0.35043 3 4 cbr 210 ------- 0 2.0 9.0 61 61
+ 0.35043 4 5 cbr 210 ------- 0 2.0 9.0 61 61
r 0.35048 4 5 cbr 210 ------- 0 2.0 9.0 22 22
+ 0.35048 5 7 cbr 210 ------- 0 2.0 9.0 22 22
- 0.35048 5 7 cbr 210 ------- 0 2.0 9.0 22 22
r 0.35084 2 3 cbr 210 ------- 0 2.0 9.0 64 64
+ 0.35084 3 4 cbr 210 ------- 0 2.0 9.0 64 64
- 0.35084 3 4 cbr 210 ------- 0 2.0 9.0 64 64
+ 0.35125 2 3 cbr 210 ------- 0 2.0 9.0 67 67
- 0.35125 2 3 cbr 210 ------- 0 2.0 9.0 67 67
- 0.35128 4 5 cbr 210 ------- 0 2.0 9.0 41 41
r 0.35418 3 4 cbr 210 ------- 0 2.0 9.0 62 62
+ 0.35418 4 5 cbr 210 ------- 0 2.0 9.0 62 62
r 0.35459 2 3 cbr 210 ------- 0 2.0 9.0 65 65
+ 0.35459 3 4 cbr 210 ------- 0 2.0 9.0 65 65
- 0.35459 3 4 cbr 210 ------- 0 2.0 9.0 65 65
+ 0.355 2 3 cbr 210 ------- 0 2.0 9.0 68 68
- 0.355 2 3 cbr 210 ------- 0 2.0 9.0 68 68
r 0.3556 7 9 cbr 210 ------- 0 2.0 9.0 11 11
r 0.35584 5 7 cbr 210 ------- 0 2.0 9.0 17 17
+ 0.35584 7 9 cbr 210 ------- 0 2.0 9.0 17 17
- 0.35584 7 9 cbr 210 ------- 0 2.0 9.0 17 17
r 0.35608 4 5 cbr 210 ------- 0 2.0 9.0 23 23
+ 0.35608 5 7 cbr 210 ------- 0 2.0 9.0 23 23
- 0.35608 5 7 cbr 210 ------- 0 2.0 9.0 23 23
- 0.35688 4 5 cbr 210 ------- 0 2.0 9.0 42 42
r 0.35793 3 4 cbr 210 ------- 0 2.0 9.0 63 63
+ 0.35793 4 5 cbr 210 ------- 0 2.0 9.0 63 63
r 0.35834 2 3 cbr 210 ------- 0 2.0 9.0 66 66
+ 0.35834 3 4 cbr 210 ------- 0 2.0 9.0 66 66
- 0.35834 3 4 cbr 210 ------- 0 2.0 9.0 66 66
+ 0.35875 2 3 cbr 210 ------- 0 2.0 9.0 69 69
- 0.35875 2 3 cbr 210 ------- 0 2.0 9.0 69 69
r 0.3612 7 9 cbr 210 ------- 0 2.0 9.0 12 12
r 0.36144 5 7 cbr 210 ------- 0 2.0 9.0 18 18
+ 0.36144 7 9 cbr 210 ------- 0 2.0 9.0 18 18
- 0.36144 7 9 cbr 210 ------- 0 2.0 9.0 18 18
r 0.36168 3 4 cbr 210 ------- 0 2.0 9.0 64 64
+ 0.36168 4 5 cbr 210 ------- 0 2.0 9.0 64 64
r 0.36168 4 5 cbr 210 ------- 0 2.0 9.0 24 24
+ 0.36168 5 7 cbr 210 ------- 0 2.0 9.0 24 24
- 0.36168 5 7 cbr 210 ------- 0 2.0 9.0 24 24
r 0.36209 2 3 cbr 210 ------- 0 2.0 9.0 67 67
+ 0.36209 3 4 cbr 210 ------- 0 2.0 9.0 67 67